calculator: qe
length_unit: au
nqpoint: 2      
npath: 1      
segment_nqpoint:
- 2
labels:
- [ '$\Gamma$', 'R' ]
reciprocal_lattice:
- [   0.09680961,   0.00000000,   0.00000000 ] # a*
- [   0.00000000,   0.09680961,   0.00000000 ] # b*
- [   0.00000000,   0.00000000,   0.09680961 ] # c*
natom: 8      
lattice:
- [    10.329552820956636,     0.000000000000000,     0.000000000000000 ] # a
- [     0.000000000000000,    10.329552820956636,     0.000000000000000 ] # b
- [     0.000000000000000,     0.000000000000000,    10.329552820956636 ] # c
points:
- symbol: Si # 1
  coordinates: [  0.875000000000000,  0.875000000000000,  0.875000000000000 ]
  mass: 28.085500
- symbol: Si # 2
  coordinates: [  0.875000000000000,  0.375000000000000,  0.375000000000000 ]
  mass: 28.085500
- symbol: Si # 3
  coordinates: [  0.375000000000000,  0.875000000000000,  0.375000000000000 ]
  mass: 28.085500
- symbol: Si # 4
  coordinates: [  0.375000000000000,  0.375000000000000,  0.875000000000000 ]
  mass: 28.085500
- symbol: Si # 5
  coordinates: [  0.125000000000000,  0.125000000000000,  0.125000000000000 ]
  mass: 28.085500
- symbol: Si # 6
  coordinates: [  0.125000000000000,  0.625000000000000,  0.625000000000000 ]
  mass: 28.085500
- symbol: Si # 7
  coordinates: [  0.625000000000000,  0.125000000000000,  0.625000000000000 ]
  mass: 28.085500
- symbol: Si # 8
  coordinates: [  0.625000000000000,  0.625000000000000,  0.125000000000000 ]
  mass: 28.085500
supercell_matrix:
- [    4,    0,    0 ]
- [    0,    4,    0 ]
- [    0,    0,    4 ]

phonon:
- q-position: [    0.0000000,    0.0000000,    0.0000000 ]
  distance:    0.0000000
  band:
  - # 1
    frequency:   -0.0241026373
    eigenvector:
    - # atom 1
      - [ -0.00000504564764,  0.00000000000000 ]
      - [ -0.31749032741153,  0.00000000000000 ]
      - [  0.15556314465407,  0.00000000000000 ]
    - # atom 2
      - [ -0.00000504564764,  0.00000000000000 ]
      - [ -0.31749032741153,  0.00000000000000 ]
      - [  0.15556314465407,  0.00000000000000 ]
    - # atom 3
      - [ -0.00000504564764,  0.00000000000000 ]
      - [ -0.31749032741153,  0.00000000000000 ]
      - [  0.15556314465407,  0.00000000000000 ]
    - # atom 4
      - [ -0.00000504564764,  0.00000000000000 ]
      - [ -0.31749032741153,  0.00000000000000 ]
      - [  0.15556314465407,  0.00000000000000 ]
    - # atom 5
      - [ -0.00000504564764,  0.00000000000000 ]
      - [ -0.31749032741153,  0.00000000000000 ]
      - [  0.15556314465407,  0.00000000000000 ]
    - # atom 6
      - [ -0.00000504564764,  0.00000000000000 ]
      - [ -0.31749032741153,  0.00000000000000 ]
      - [  0.15556314465407,  0.00000000000000 ]
    - # atom 7
      - [ -0.00000504564764,  0.00000000000000 ]
      - [ -0.31749032741153,  0.00000000000000 ]
      - [  0.15556314465407,  0.00000000000000 ]
    - # atom 8
      - [ -0.00000504564764,  0.00000000000000 ]
      - [ -0.31749032741153,  0.00000000000000 ]
      - [  0.15556314465407,  0.00000000000000 ]
  - # 2
    frequency:   -0.0241026373
    eigenvector:
    - # atom 1
      - [ -0.08477930089897, -0.00000000000000 ]
      - [ -0.15102338969945,  0.00000000000000 ]
      - [ -0.30822784738367,  0.00000000000000 ]
    - # atom 2
      - [ -0.08477930089897,  0.00000000000000 ]
      - [ -0.15102338969945,  0.00000000000000 ]
      - [ -0.30822784738367,  0.00000000000000 ]
    - # atom 3
      - [ -0.08477930089897,  0.00000000000000 ]
      - [ -0.15102338969945,  0.00000000000000 ]
      - [ -0.30822784738367,  0.00000000000000 ]
    - # atom 4
      - [ -0.08477930089897,  0.00000000000000 ]
      - [ -0.15102338969945,  0.00000000000000 ]
      - [ -0.30822784738367,  0.00000000000000 ]
    - # atom 5
      - [ -0.08477930089897,  0.00000000000000 ]
      - [ -0.15102338969945,  0.00000000000000 ]
      - [ -0.30822784738367,  0.00000000000000 ]
    - # atom 6
      - [ -0.08477930089897,  0.00000000000000 ]
      - [ -0.15102338969945,  0.00000000000000 ]
      - [ -0.30822784738367,  0.00000000000000 ]
    - # atom 7
      - [ -0.08477930089897,  0.00000000000000 ]
      - [ -0.15102338969945,  0.00000000000000 ]
      - [ -0.30822784738367,  0.00000000000000 ]
    - # atom 8
      - [ -0.08477930089897,  0.00000000000000 ]
      - [ -0.15102338969945,  0.00000000000000 ]
      - [ -0.30822784738367,  0.00000000000000 ]
  - # 3
    frequency:   -0.0241026373
    eigenvector:
    - # atom 1
      - [ -0.34323821190774,  0.00000000000000 ]
      - [  0.03730720793370,  0.00000000000000 ]
      - [  0.07612950888170,  0.00000000000000 ]
    - # atom 2
      - [ -0.34323821190774,  0.00000000000000 ]
      - [  0.03730720793370,  0.00000000000000 ]
      - [  0.07612950888170,  0.00000000000000 ]
    - # atom 3
      - [ -0.34323821190774,  0.00000000000000 ]
      - [  0.03730720793370,  0.00000000000000 ]
      - [  0.07612950888170,  0.00000000000000 ]
    - # atom 4
      - [ -0.34323821190774,  0.00000000000000 ]
      - [  0.03730720793370,  0.00000000000000 ]
      - [  0.07612950888170,  0.00000000000000 ]
    - # atom 5
      - [ -0.34323821190774,  0.00000000000000 ]
      - [  0.03730720793370,  0.00000000000000 ]
      - [  0.07612950888170,  0.00000000000000 ]
    - # atom 6
      - [ -0.34323821190774,  0.00000000000000 ]
      - [  0.03730720793370,  0.00000000000000 ]
      - [  0.07612950888170,  0.00000000000000 ]
    - # atom 7
      - [ -0.34323821190774,  0.00000000000000 ]
      - [  0.03730720793370,  0.00000000000000 ]
      - [  0.07612950888170,  0.00000000000000 ]
    - # atom 8
      - [ -0.34323821190774,  0.00000000000000 ]
      - [  0.03730720793370,  0.00000000000000 ]
      - [  0.07612950888170,  0.00000000000000 ]
  - # 4
    frequency:   21.6254301215
    eigenvector:
    - # atom 1
      - [ -0.05621474357111, -0.00000000000000 ]
      - [ -0.12475668580561,  0.00000000000000 ]
      - [  0.38974739358122,  0.00000000000000 ]
    - # atom 2
      - [  0.05621474357111,  0.00000000000000 ]
      - [  0.25643829970242,  0.00000000000000 ]
      - [  0.00965805971648,  0.00000000000000 ]
    - # atom 3
      - [  0.11627020889688,  0.00000000000000 ]
      - [  0.12475668580561,  0.00000000000000 ]
      - [ -0.00965805971648,  0.00000000000000 ]
    - # atom 4
      - [ -0.11627020889688,  0.00000000000000 ]
      - [ -0.25643829970242,  0.00000000000000 ]
      - [ -0.38974739358122,  0.00000000000000 ]
    - # atom 5
      - [ -0.00055282582165,  0.00000000000000 ]
      - [  0.11346025041485,  0.00000000000000 ]
      - [  0.09586853961129,  0.00000000000000 ]
    - # atom 6
      - [  0.00055282582165,  0.00000000000000 ]
      - [  0.28594520288284,  0.00000000000000 ]
      - [  0.03581307428552,  0.00000000000000 ]
    - # atom 7
      - [  0.38064215968639,  0.00000000000000 ]
      - [ -0.11346025041485,  0.00000000000000 ]
      - [ -0.03581307428552,  0.00000000000000 ]
    - # atom 8
      - [ -0.38064215968639,  0.00000000000000 ]
      - [ -0.28594520288284,  0.00000000000000 ]
      - [ -0.09586853961129,  0.00000000000000 ]
  - # 5
    frequency:   21.6254301215
    eigenvector:
    - # atom 1
      - [  0.45694059117323,  0.00000000000000 ]
      - [  0.07553948858779,  0.00000000000000 ]
      - [  0.04726731475770,  0.00000000000000 ]
    - # atom 2
      - [ -0.45694059117323,  0.00000000000000 ]
      - [  0.07229764111077,  0.00000000000000 ]
      - [ -0.16743319377334,  0.00000000000000 ]
    - # atom 3
      - [ -0.00201481275280,  0.00000000000000 ]
      - [ -0.07553948858779,  0.00000000000000 ]
      - [  0.16743319377334,  0.00000000000000 ]
    - # atom 4
      - [  0.00201481275280,  0.00000000000000 ]
      - [ -0.07229764111077,  0.00000000000000 ]
      - [ -0.04726731475770,  0.00000000000000 ]
    - # atom 5
      - [  0.10897117800403,  0.00000000000000 ]
      - [  0.16939476245520,  0.00000000000000 ]
      - [  0.30138145405949,  0.00000000000000 ]
    - # atom 6
      - [ -0.10897117800403,  0.00000000000000 ]
      - [ -0.28956064147083,  0.00000000000000 ]
      - [ -0.15354432436094,  0.00000000000000 ]
    - # atom 7
      - [  0.10572933052701,  0.00000000000000 ]
      - [ -0.16939476245520,  0.00000000000000 ]
      - [  0.15354432436094,  0.00000000000000 ]
    - # atom 8
      - [ -0.10572933052701,  0.00000000000000 ]
      - [  0.28956064147083,  0.00000000000000 ]
      - [ -0.30138145405949,  0.00000000000000 ]
  - # 6
    frequency:   21.6254301215
    eigenvector:
    - # atom 1
      - [  0.11022780642177,  0.00000000000000 ]
      - [  0.21438068326356,  0.00000000000000 ]
      - [  0.12257904155830,  0.00000000000000 ]
    - # atom 2
      - [ -0.11022780642178,  0.00000000000000 ]
      - [ -0.04507872290299,  0.00000000000000 ]
      - [  0.41343399760304,  0.00000000000000 ]
    - # atom 3
      - [ -0.06249296178732,  0.00000000000000 ]
      - [ -0.21438068326356,  0.00000000000000 ]
      - [ -0.41343399760304,  0.00000000000000 ]
    - # atom 4
      - [  0.06249296178732,  0.00000000000000 ]
      - [  0.04507872290298,  0.00000000000000 ]
      - [ -0.12257904155830,  0.00000000000000 ]
    - # atom 5
      - [ -0.01569777493910,  0.00000000000000 ]
      - [  0.35436690368521,  0.00000000000000 ]
      - [  0.10851840249752,  0.00000000000000 ]
    - # atom 6
      - [  0.01569777493910,  0.00000000000000 ]
      - [  0.18164613547612,  0.00000000000000 ]
      - [  0.06078355786306,  0.00000000000000 ]
    - # atom 7
      - [ -0.27515718110564,  0.00000000000000 ]
      - [ -0.35436690368521,  0.00000000000000 ]
      - [ -0.06078355786306,  0.00000000000000 ]
    - # atom 8
      - [  0.27515718110564,  0.00000000000000 ]
      - [ -0.18164613547612,  0.00000000000000 ]
      - [ -0.10851840249752,  0.00000000000000 ]
  - # 7
    frequency:   21.6254301215
    eigenvector:
    - # atom 1
      - [  0.00291031734692,  0.00000000000000 ]
      - [ -0.12035100181114,  0.00000000000000 ]
      - [  0.22738865908498,  0.00000000000000 ]
    - # atom 2
      - [ -0.00291031734692,  0.00000000000000 ]
      - [ -0.24567143223637,  0.00000000000000 ]
      - [ -0.08413813662043,  0.00000000000000 ]
    - # atom 3
      - [ -0.34112737428196,  0.00000000000000 ]
      - [  0.12035100181114,  0.00000000000000 ]
      - [  0.08413813662043,  0.00000000000000 ]
    - # atom 4
      - [  0.34112737428196,  0.00000000000000 ]
      - [  0.24567143223637,  0.00000000000000 ]
      - [ -0.22738865908498,  0.00000000000000 ]
    - # atom 5
      - [  0.21842361306532,  0.00000000000000 ]
      - [  0.24364410704672,  0.00000000000000 ]
      - [ -0.35211974549127,  0.00000000000000 ]
    - # atom 6
      - [ -0.21842361306532,  0.00000000000000 ]
      - [ -0.10039358458216,  0.00000000000000 ]
      - [ -0.01390268855624,  0.00000000000000 ]
    - # atom 7
      - [  0.09310318264009,  0.00000000000000 ]
      - [ -0.24364410704672,  0.00000000000000 ]
      - [  0.01390268855624,  0.00000000000000 ]
    - # atom 8
      - [ -0.09310318264009,  0.00000000000000 ]
      - [  0.10039358458216,  0.00000000000000 ]
      - [  0.35211974549127,  0.00000000000000 ]
  - # 8
    frequency:   21.6254301215
    eigenvector:
    - # atom 1
      - [  0.16089295481513,  0.00000000000000 ]
      - [ -0.40275624305336,  0.00000000000000 ]
      - [ -0.08603992120555,  0.00000000000000 ]
    - # atom 2
      - [ -0.16089295481514,  0.00000000000000 ]
      - [ -0.08066810879100,  0.00000000000000 ]
      - [  0.19711103794403,  0.00000000000000 ]
    - # atom 3
      - [  0.09559232540351,  0.00000000000000 ]
      - [  0.40275624305336,  0.00000000000000 ]
      - [ -0.19711103794403,  0.00000000000000 ]
    - # atom 4
      - [ -0.09559232540351,  0.00000000000000 ]
      - [  0.08066810879100,  0.00000000000000 ]
      - [  0.08603992120555,  0.00000000000000 ]
    - # atom 5
      - [ -0.30261954670597,  0.00000000000000 ]
      - [  0.08818587307505,  0.00000000000000 ]
      - [ -0.11346953581286,  0.00000000000000 ]
    - # atom 6
      - [  0.30261954670597,  0.00000000000000 ]
      - [  0.02288524366343,  0.00000000000000 ]
      - [ -0.36995481603150,  0.00000000000000 ]
    - # atom 7
      - [  0.01946858755639,  0.00000000000000 ]
      - [ -0.08818587307505,  0.00000000000000 ]
      - [  0.36995481603150,  0.00000000000000 ]
    - # atom 8
      - [ -0.01946858755639,  0.00000000000000 ]
      - [ -0.02288524366343,  0.00000000000000 ]
      - [  0.11346953581286,  0.00000000000000 ]
  - # 9
    frequency:   21.6254301215
    eigenvector:
    - # atom 1
      - [  0.00012875842243,  0.00000000000000 ]
      - [ -0.07793280887242,  0.00000000000000 ]
      - [ -0.14740650732369,  0.00000000000000 ]
    - # atom 2
      - [ -0.00012875842243,  0.00000000000000 ]
      - [  0.33184116966404,  0.00000000000000 ]
      - [  0.07080388278911,  0.00000000000000 ]
    - # atom 3
      - [ -0.32720945985583,  0.00000000000000 ]
      - [  0.07793280887242,  0.00000000000000 ]
      - [ -0.07080388278911,  0.00000000000000 ]
    - # atom 4
      - [  0.32720945985583,  0.00000000000000 ]
      - [ -0.33184116966404,  0.00000000000000 ]
      - [  0.14740650732369,  0.00000000000000 ]
    - # atom 5
      - [ -0.31399218432463,  0.00000000000000 ]
      - [  0.12536779687184,  0.00000000000000 ]
      - [ -0.03658617032089,  0.00000000000000 ]
    - # atom 6
      - [  0.31399218432463,  0.00000000000000 ]
      - [ -0.20197042140642,  0.00000000000000 ]
      - [  0.29049453111251,  0.00000000000000 ]
    - # atom 7
      - [  0.09578179421183,  0.00000000000000 ]
      - [ -0.12536779687184,  0.00000000000000 ]
      - [ -0.29049453111251,  0.00000000000000 ]
    - # atom 8
      - [ -0.09578179421183,  0.00000000000000 ]
      - [  0.20197042140642,  0.00000000000000 ]
      - [  0.03658617032089,  0.00000000000000 ]
  - # 10
    frequency:   57.7024973933
    eigenvector:
    - # atom 1
      - [ -0.00001033803386,  0.00000000000000 ]
      - [ -0.26797978574826,  0.00000000000000 ]
      - [  0.17315363933045,  0.00000000000000 ]
    - # atom 2
      - [ -0.00001033803386,  0.00000000000000 ]
      - [  0.26797978574826,  0.00000000000000 ]
      - [ -0.17315363933045,  0.00000000000000 ]
    - # atom 3
      - [  0.00001033803386,  0.00000000000000 ]
      - [ -0.26797978574826,  0.00000000000000 ]
      - [ -0.17315363933045,  0.00000000000000 ]
    - # atom 4
      - [  0.00001033803386,  0.00000000000000 ]
      - [  0.26797978574826,  0.00000000000000 ]
      - [  0.17315363933045,  0.00000000000000 ]
    - # atom 5
      - [ -0.29846019581422,  0.00000000000000 ]
      - [  0.24313386863336,  0.00000000000000 ]
      - [ -0.00347634117716,  0.00000000000000 ]
    - # atom 6
      - [ -0.29846019581422,  0.00000000000000 ]
      - [ -0.24313386863336,  0.00000000000000 ]
      - [  0.00347634117716,  0.00000000000000 ]
    - # atom 7
      - [  0.29846019581422,  0.00000000000000 ]
      - [  0.24313386863336,  0.00000000000000 ]
      - [  0.00347634117716,  0.00000000000000 ]
    - # atom 8
      - [  0.29846019581422,  0.00000000000000 ]
      - [ -0.24313386863336,  0.00000000000000 ]
      - [ -0.00347634117716,  0.00000000000000 ]
  - # 11
    frequency:   57.7024973933
    eigenvector:
    - # atom 1
      - [  0.00000079719371,  0.00000000000000 ]
      - [ -0.27879892032028,  0.00000000000000 ]
      - [  0.21853407046185,  0.00000000000000 ]
    - # atom 2
      - [  0.00000079719371,  0.00000000000000 ]
      - [  0.27879892032028,  0.00000000000000 ]
      - [ -0.21853407046185,  0.00000000000000 ]
    - # atom 3
      - [ -0.00000079719371,  0.00000000000000 ]
      - [ -0.27879892032028,  0.00000000000000 ]
      - [ -0.21853407046185,  0.00000000000000 ]
    - # atom 4
      - [ -0.00000079719371,  0.00000000000000 ]
      - [  0.27879892032028,  0.00000000000000 ]
      - [  0.21853407046185,  0.00000000000000 ]
    - # atom 5
      - [  0.10779918599304,  0.00000000000000 ]
      - [ -0.32966621741148,  0.00000000000000 ]
      - [  0.06491180687543,  0.00000000000000 ]
    - # atom 6
      - [  0.10779918599304,  0.00000000000000 ]
      - [  0.32966621741148,  0.00000000000000 ]
      - [ -0.06491180687543,  0.00000000000000 ]
    - # atom 7
      - [ -0.10779918599304,  0.00000000000000 ]
      - [ -0.32966621741148,  0.00000000000000 ]
      - [ -0.06491180687543,  0.00000000000000 ]
    - # atom 8
      - [ -0.10779918599304,  0.00000000000000 ]
      - [  0.32966621741148,  0.00000000000000 ]
      - [  0.06491180687543,  0.00000000000000 ]
  - # 12
    frequency:   57.7024973933
    eigenvector:
    - # atom 1
      - [ -0.00003661152066, -0.00000000000000 ]
      - [ -0.07600781219046,  0.00000000000000 ]
      - [ -0.30075291600817,  0.00000000000000 ]
    - # atom 2
      - [ -0.00003661152066,  0.00000000000000 ]
      - [  0.07600781219046,  0.00000000000000 ]
      - [  0.30075291600817,  0.00000000000000 ]
    - # atom 3
      - [  0.00003661152066,  0.00000000000000 ]
      - [ -0.07600781219046,  0.00000000000000 ]
      - [  0.30075291600817,  0.00000000000000 ]
    - # atom 4
      - [  0.00003661152066,  0.00000000000000 ]
      - [  0.07600781219046,  0.00000000000000 ]
      - [ -0.30075291600817,  0.00000000000000 ]
    - # atom 5
      - [ -0.30403255938081,  0.00000000000000 ]
      - [ -0.24345310990649,  0.00000000000000 ]
      - [ -0.04544536028477,  0.00000000000000 ]
    - # atom 6
      - [ -0.30403255938081,  0.00000000000000 ]
      - [  0.24345310990649,  0.00000000000000 ]
      - [  0.04544536028477,  0.00000000000000 ]
    - # atom 7
      - [  0.30403255938081,  0.00000000000000 ]
      - [ -0.24345310990649,  0.00000000000000 ]
      - [  0.04544536028477,  0.00000000000000 ]
    - # atom 8
      - [  0.30403255938081,  0.00000000000000 ]
      - [  0.24345310990649,  0.00000000000000 ]
      - [ -0.04544536028477,  0.00000000000000 ]
  - # 13
    frequency:   57.7024973933
    eigenvector:
    - # atom 1
      - [  0.00024352592471,  0.00000000000000 ]
      - [  0.15612049042506,  0.00000000000000 ]
      - [  0.20848634777091,  0.00000000000000 ]
    - # atom 2
      - [  0.00024352592471,  0.00000000000000 ]
      - [ -0.15612049042506,  0.00000000000000 ]
      - [ -0.20848634777091,  0.00000000000000 ]
    - # atom 3
      - [ -0.00024352592471,  0.00000000000000 ]
      - [  0.15612049042506,  0.00000000000000 ]
      - [ -0.20848634777091,  0.00000000000000 ]
    - # atom 4
      - [ -0.00024352592471,  0.00000000000000 ]
      - [ -0.15612049042506,  0.00000000000000 ]
      - [  0.20848634777091,  0.00000000000000 ]
    - # atom 5
      - [ -0.10066823273231,  0.00000000000000 ]
      - [ -0.10571426486529,  0.00000000000000 ]
      - [ -0.40106131336773,  0.00000000000000 ]
    - # atom 6
      - [ -0.10066823273231,  0.00000000000000 ]
      - [  0.10571426486529,  0.00000000000000 ]
      - [  0.40106131336773,  0.00000000000000 ]
    - # atom 7
      - [  0.10066823273231,  0.00000000000000 ]
      - [ -0.10571426486529,  0.00000000000000 ]
      - [  0.40106131336773,  0.00000000000000 ]
    - # atom 8
      - [  0.10066823273231,  0.00000000000000 ]
      - [  0.10571426486529,  0.00000000000000 ]
      - [ -0.40106131336773,  0.00000000000000 ]
  - # 14
    frequency:   57.7024973933
    eigenvector:
    - # atom 1
      - [ -0.49999993923926,  0.00000000000000 ]
      - [  0.00008520564994,  0.00000000000000 ]
      - [  0.00011923005419,  0.00000000000000 ]
    - # atom 2
      - [ -0.49999993923926,  0.00000000000000 ]
      - [ -0.00008520564994,  0.00000000000000 ]
      - [ -0.00011923005419,  0.00000000000000 ]
    - # atom 3
      - [  0.49999993923926,  0.00000000000000 ]
      - [  0.00008520564994,  0.00000000000000 ]
      - [ -0.00011923005419,  0.00000000000000 ]
    - # atom 4
      - [  0.49999993923926,  0.00000000000000 ]
      - [ -0.00008520564994,  0.00000000000000 ]
      - [  0.00011923005419,  0.00000000000000 ]
    - # atom 5
      - [ -0.00001920684612,  0.00000000000000 ]
      - [ -0.00003860320156,  0.00000000000000 ]
      - [ -0.00019345753441,  0.00000000000000 ]
    - # atom 6
      - [ -0.00001920684612,  0.00000000000000 ]
      - [  0.00003860320156,  0.00000000000000 ]
      - [  0.00019345753441,  0.00000000000000 ]
    - # atom 7
      - [  0.00001920684612,  0.00000000000000 ]
      - [ -0.00003860320156,  0.00000000000000 ]
      - [  0.00019345753441,  0.00000000000000 ]
    - # atom 8
      - [  0.00001920684612,  0.00000000000000 ]
      - [  0.00003860320156,  0.00000000000000 ]
      - [ -0.00019345753441,  0.00000000000000 ]
  - # 15
    frequency:   57.7024973933
    eigenvector:
    - # atom 1
      - [  0.00000281893926,  0.00000000000000 ]
      - [ -0.26515503795707,  0.00000000000000 ]
      - [ -0.19581059553539,  0.00000000000000 ]
    - # atom 2
      - [  0.00000281893926,  0.00000000000000 ]
      - [  0.26515503795707,  0.00000000000000 ]
      - [  0.19581059553539,  0.00000000000000 ]
    - # atom 3
      - [ -0.00000281893926,  0.00000000000000 ]
      - [ -0.26515503795707,  0.00000000000000 ]
      - [  0.19581059553538,  0.00000000000000 ]
    - # atom 4
      - [ -0.00000281893926,  0.00000000000000 ]
      - [  0.26515503795707,  0.00000000000000 ]
      - [ -0.19581059553539,  0.00000000000000 ]
    - # atom 5
      - [  0.21617344055129,  0.00000000000000 ]
      - [  0.10844898806179,  0.00000000000000 ]
      - [ -0.28785217925648,  0.00000000000000 ]
    - # atom 6
      - [  0.21617344055130,  0.00000000000000 ]
      - [ -0.10844898806179,  0.00000000000000 ]
      - [  0.28785217925648,  0.00000000000000 ]
    - # atom 7
      - [ -0.21617344055130,  0.00000000000000 ]
      - [  0.10844898806179,  0.00000000000000 ]
      - [  0.28785217925648,  0.00000000000000 ]
    - # atom 8
      - [ -0.21617344055130,  0.00000000000000 ]
      - [ -0.10844898806179,  0.00000000000000 ]
      - [ -0.28785217925648,  0.00000000000000 ]
  - # 16
    frequency:   64.1856520702
    eigenvector:
    - # atom 1
      - [  0.00000298589200,  0.00000000000000 ]
      - [ -0.18882381284055,  0.00000000000000 ]
      - [ -0.02625814482802,  0.00000000000000 ]
    - # atom 2
      - [ -0.00000298589200,  0.00000000000000 ]
      - [ -0.01098236140316,  0.00000000000000 ]
      - [  0.12223403066822,  0.00000000000000 ]
    - # atom 3
      - [  0.44563921170633,  0.00000000000000 ]
      - [  0.18882381284055,  0.00000000000000 ]
      - [ -0.12223403066822,  0.00000000000000 ]
    - # atom 4
      - [ -0.44563921170633,  0.00000000000000 ]
      - [  0.01098236140316,  0.00000000000000 ]
      - [  0.02625814482802,  0.00000000000000 ]
    - # atom 5
      - [  0.16316681346682,  0.00000000000000 ]
      - [  0.17483016998707,  0.00000000000000 ]
      - [ -0.12291801167732,  0.00000000000000 ]
    - # atom 6
      - [ -0.16316681346682,  0.00000000000000 ]
      - [ -0.27080605582727,  0.00000000000000 ]
      - [  0.32272418592102,  0.00000000000000 ]
    - # atom 7
      - [ -0.01467463797057,  0.00000000000000 ]
      - [ -0.17483016998707,  0.00000000000000 ]
      - [ -0.32272418592102,  0.00000000000000 ]
    - # atom 8
      - [  0.01467463797057,  0.00000000000000 ]
      - [  0.27080605582727,  0.00000000000000 ]
      - [  0.12291801167732,  0.00000000000000 ]
  - # 17
    frequency:   64.1856520702
    eigenvector:
    - # atom 1
      - [ -0.00003144764993,  0.00000000000000 ]
      - [ -0.00876832517548,  0.00000000000000 ]
      - [  0.36250757002644,  0.00000000000000 ]
    - # atom 2
      - [  0.00003144764993,  0.00000000000000 ]
      - [  0.26360873650042,  0.00000000000000 ]
      - [ -0.20618024761329,  0.00000000000000 ]
    - # atom 3
      - [  0.08069396937172,  0.00000000000000 ]
      - [  0.00876832517548,  0.00000000000000 ]
      - [  0.20618024761329,  0.00000000000000 ]
    - # atom 4
      - [ -0.08069396937172,  0.00000000000000 ]
      - [ -0.26360873650042,  0.00000000000000 ]
      - [ -0.36250757002644,  0.00000000000000 ]
    - # atom 5
      - [ -0.14815537798191,  0.00000000000000 ]
      - [ -0.03780095269574,  0.00000000000000 ]
      - [ -0.16775146652336,  0.00000000000000 ]
    - # atom 6
      - [  0.14815537798192,  0.00000000000000 ]
      - [ -0.11852636971740,  0.00000000000000 ]
      - [ -0.08708894480157,  0.00000000000000 ]
    - # atom 7
      - [ -0.42053243965782,  0.00000000000000 ]
      - [  0.03780095269574,  0.00000000000000 ]
      - [  0.08708894480157,  0.00000000000000 ]
    - # atom 8
      - [  0.42053243965781,  0.00000000000000 ]
      - [  0.11852636971740,  0.00000000000000 ]
      - [  0.16775146652336,  0.00000000000000 ]
  - # 18
    frequency:   64.1856520702
    eigenvector:
    - # atom 1
      - [ -0.00025490933963,  0.00000000000000 ]
      - [  0.16441663989223,  0.00000000000000 ]
      - [  0.31914197124549,  0.00000000000000 ]
    - # atom 2
      - [  0.00025490933963,  0.00000000000000 ]
      - [ -0.27618263665514,  0.00000000000000 ]
      - [  0.21039195544399,  0.00000000000000 ]
    - # atom 3
      - [  0.02395583503007,  0.00000000000000 ]
      - [ -0.16441663989223,  0.00000000000000 ]
      - [ -0.21039195544399,  0.00000000000000 ]
    - # atom 4
      - [ -0.02395583503007,  0.00000000000000 ]
      - [  0.27618263665514,  0.00000000000000 ]
      - [ -0.31914197124549,  0.00000000000000 ]
    - # atom 5
      - [ -0.27467464617443,  0.00000000000000 ]
      - [ -0.25266159115989,  0.00000000000000 ]
      - [  0.04403253553624,  0.00000000000000 ]
    - # atom 6
      - [  0.27467464617443,  0.00000000000000 ]
      - [ -0.27687233552959,  0.00000000000000 ]
      - [  0.06773346122667,  0.00000000000000 ]
    - # atom 7
      - [  0.16592463037294,  0.00000000000000 ]
      - [  0.25266159115989,  0.00000000000000 ]
      - [ -0.06773346122668,  0.00000000000000 ]
    - # atom 8
      - [ -0.16592463037294,  0.00000000000000 ]
      - [  0.27687233552959,  0.00000000000000 ]
      - [ -0.04403253553624,  0.00000000000000 ]
  - # 19
    frequency:   64.1856520702
    eigenvector:
    - # atom 1
      - [ -0.00015155754798,  0.00000000000000 ]
      - [  0.39389168823135,  0.00000000000000 ]
      - [ -0.12162318176389,  0.00000000000000 ]
    - # atom 2
      - [  0.00015155754798,  0.00000000000000 ]
      - [ -0.03020223970854,  0.00000000000000 ]
      - [ -0.18691548472635,  0.00000000000000 ]
    - # atom 3
      - [  0.21025589864804,  0.00000000000000 ]
      - [ -0.39389168823135,  0.00000000000000 ]
      - [  0.18691548472635,  0.00000000000000 ]
    - # atom 4
      - [ -0.21025589864804,  0.00000000000000 ]
      - [  0.03020223970854,  0.00000000000000 ]
      - [  0.12162318176389,  0.00000000000000 ]
    - # atom 5
      - [ -0.24469311545118,  0.00000000000000 ]
      - [  0.25947306134313,  0.00000000000000 ]
      - [ -0.28689689481143,  0.00000000000000 ]
    - # atom 6
      - [  0.24469311545118,  0.00000000000000 ]
      - [  0.04906560514712,  0.00000000000000 ]
      - [ -0.07679255371137,  0.00000000000000 ]
    - # atom 7
      - [  0.17940081248871,  0.00000000000000 ]
      - [ -0.25947306134313,  0.00000000000000 ]
      - [  0.07679255371137,  0.00000000000000 ]
    - # atom 8
      - [ -0.17940081248871,  0.00000000000000 ]
      - [ -0.04906560514711,  0.00000000000000 ]
      - [  0.28689689481143,  0.00000000000000 ]
  - # 20
    frequency:   64.1856520702
    eigenvector:
    - # atom 1
      - [  0.49999990775527,  0.00000000000000 ]
      - [  0.00022436802668,  0.00000000000000 ]
      - [  0.00014472650635,  0.00000000000000 ]
    - # atom 2
      - [ -0.49999990775527,  0.00000000000000 ]
      - [ -0.00009641284842,  0.00000000000000 ]
      - [  0.00007557806420,  0.00000000000000 ]
    - # atom 3
      - [  0.00007713925761,  0.00000000000000 ]
      - [ -0.00022436802668,  0.00000000000000 ]
      - [ -0.00007557806420,  0.00000000000000 ]
    - # atom 4
      - [ -0.00007713925761,  0.00000000000000 ]
      - [  0.00009641284842,  0.00000000000000 ]
      - [ -0.00014472650635,  0.00000000000000 ]
    - # atom 5
      - [ -0.00019496465862,  0.00000000000000 ]
      - [ -0.25007153653411,  0.00000000000000 ]
      - [ -0.25010250109557,  0.00000000000000 ]
    - # atom 6
      - [  0.00019496465862,  0.00000000000000 ]
      - [  0.24985123196356,  0.00000000000000 ]
      - [  0.24997454591731,  0.00000000000000 ]
    - # atom 7
      - [  0.00012581621647,  0.00000000000000 ]
      - [  0.25007153653411,  0.00000000000000 ]
      - [ -0.24997454591731,  0.00000000000000 ]
    - # atom 8
      - [ -0.00012581621647,  0.00000000000000 ]
      - [ -0.24985123196356,  0.00000000000000 ]
      - [  0.25010250109557,  0.00000000000000 ]
  - # 21
    frequency:   64.1856520702
    eigenvector:
    - # atom 1
      - [  0.00005743158721, -0.00000000000000 ]
      - [ -0.17912325450865,  0.00000000000000 ]
      - [  0.03542533563889,  0.00000000000000 ]
    - # atom 2
      - [ -0.00005743158721,  0.00000000000000 ]
      - [ -0.32124879518845,  0.00000000000000 ]
      - [ -0.33666952369147,  0.00000000000000 ]
    - # atom 3
      - [  0.01061816359096,  0.00000000000000 ]
      - [  0.17912325450865,  0.00000000000000 ]
      - [  0.33666952369147,  0.00000000000000 ]
    - # atom 4
      - [ -0.01061816359096,  0.00000000000000 ]
      - [  0.32124879518844,  0.00000000000000 ]
      - [ -0.03542533563889,  0.00000000000000 ]
    - # atom 5
      - [ -0.25711020000508,  0.00000000000000 ]
      - [  0.15590246002816,  0.00000000000000 ]
      - [  0.24484822725947,  0.00000000000000 ]
    - # atom 6
      - [  0.25711020000508,  0.00000000000000 ]
      - [  0.14534172802442,  0.00000000000000 ]
      - [  0.25552382243763,  0.00000000000000 ]
    - # atom 7
      - [ -0.11498465932528,  0.00000000000000 ]
      - [ -0.15590246002816,  0.00000000000000 ]
      - [ -0.25552382243763,  0.00000000000000 ]
    - # atom 8
      - [  0.11498465932528,  0.00000000000000 ]